LAMMPS data file for solution

   16 atoms
   15 bonds
   14 angles
   9 dihedrals
   4 impropers

   1 atom types
   3 bond types
   2 angle types
   2 dihedral types
   1 improper types

     
    -10.000000 60.000000 xlo xhi 
    -10.000000 60.000000 ylo yhi 
    -10.000000 60.000000 zlo zhi 


Masses  
  
1   1

Atoms

1 1 1 0.0 7.949963 16.741526 7.096019 
2 1 1 0.0 6.518722 17.240776 8.066741 
3 1 1 0.0 6.585315 17.183121 9.864584 
4 1 1 0.0 5.839110 16.747554 11.443653 
5 1 1 0.0 4.732748 17.738922 10.427211 
6 1 1 0.0 5.252104 17.940254 8.715564 
7 1 1 0.0 5.697943 18.678646 10.295439 
8 1 1 0.0 4.030080 18.327072 9.716968 
9 1 1 0.0 2.858185 17.656691 10.907452 
10 1 1 0.0 1.750540 18.567423 11.995427 
11 1 1 0.0 1.681057 17.117773 13.060175 
12 1 1 0.0 3.211294 17.903995 13.589541 
13 1 1 0.0 3.415144 17.649148 11.819372 
14 1 1 0.0 2.980396 16.936383 10.224706 
15 1 1 0.0 4.767571 16.967324 10.436952 
16 1 1 0.0 3.678130 16.741026 9.022064 

     
Bonds

     1   1      1      2
     2   2      2      3
     3   1      3      4
     4   3      4      5
     5   1      5      6
     6   2      6      7
     7   1      7      8
     8   3      8      9
     9   1      9     10
    10   2     10     11
    11   1     11     12
    12   3     12     13
    13   1     13     14
    14   2     14     15
    15   1     15     16

Angles

     1   1      1      2      3
     2   1      2      3      4
     3   2      3      4      5
     4   2      4      5      6
     5   1      5      6      7
     6   1      6      7      8
     7   2      7      8      9
     8   2      8      9     10
     9   1      9     10     11
    10   1     10     11     12
    11   2     11     12     13
    12   2     12     13     14
    13   1     13     14     15
    14   1     14     15     16

Dihedrals

     1   1      2      3      4      5
     2   2      3      4      5      6
     3   1      4      5      6      7
     4   1      6      7      8      9
     5   2      7      8      9     10
     6   1      8      9     10     11
     7   1     10     11     12     13
     8   2     11     12     13     14
     9   1     12     13     14     15

Impropers

     1   1      1      2      3      4
     2   1      5      6      7      8
     3   1      9     10     11     12
     4   1      13    14     15     16

